DISCONTINUED

EASTMAN KODAK COMPANY (30) MSDS# DRY
APPROVED BY U.S. DEPARTMENT OF LABOR  F-110
"ESSENTIALLY SIMILAR" TO FORM OSHA-20 Kodak
MATERIAL SAFETY DATA SHEET
SECTION I

PRODUCT NAME: Potassium Alum SIZE: 5, 25 100 lbs.
CHEMICAL NAME: CAS # 10043-67-1
FORMULA: K₂SO₄·Al₂(SO₄)₃·24H₂O
MANUFACTURER: Eastman Kodak Company
ADDRESS: 343 State Street, Rochester, New York 14650
FOR INFORMATION ON HEALTH HAZARDS CALL: (716) 722-5151
FOR OTHER INFORMATION CALL:  INFORMATION EFFECTIVE AS OF. I-6-76

SECTION II HAZARDOUS INGREDIENTS OF MIXTURES

PRINCIPAL HAZARDOUS COMPONENT (S) % TLV (Units)



SECTION III PHYSICAL DATA

BOILING POINT (°F.) Decomposes SPECIFIC GRAVITY (H₂O=1) Approx. 1.75
VAPOR PRESSURE (mm Hg) Negligible PERCENT VOLATILE  Negligible
by VOLUME (%)
VAPOR DENSITY (AIR=1) N. A.* EVAPORATION RATE =1 N. A.
SOLUBILITY IN WATER Moderate
APPEARANCE AND ODOR White-colorless, odorless powder with crystals

SECTION IV FIRE AND EXPLOSION HAZARD DATA

FLAMMABLE LIMITS  LoL Uel



FLASH POINT (Air-used) None 
EXTINGUISHING MEDIA None
SPECIAL FIRE FIGHTING PROCEDURES

None 2051524505

UNUSUAL FIRE AND EXPLOSION HAZARDS
Possible SO₂ and SO₃ gas given off under high heat (Greater than 1400° F)