PAGE 01 OF 07
P505#01341

FISHER SCIENTIFIC
CHEMICAL DIVISION
2335 HYDE STREET
SAN JOSE, CA 95112
(415) 985-6410

EMERGENCY CONTACTS
GASON L. PILLORE
(213) 796-7100

DATE: 10/17/86
AC# : 57880-96-0112
CAT NO: A300-51
MSDS # : A300-521

THE INFORMATION RELATING TO THIS PRODUCT IS BASED ON DATA WE BELIEVE TO BE RELIABLE, BUT WE MAKE NO WARRANTY, EXPRESSED OR IMPLIED, REGARDING ITS ACCURACY OR COMPLETENESS.  WE ASSUME NO LIABILITY RESULTING FROM ITS USE OR HANDLING. IT IS THE USER'S RESPONSIBILITY TO DETERMINE THE SUITABILITY OF THIS PRODUCT FOR THEIR PARTICULAR PURPOSES.

SUBSTANCE IDENTIFICATION

<< SULFURIC ACID>>
<< SULFURIC ACID>>
<< SULFURIC ACID>>
CAS-NUMBER 7664-93-9

TRADE NAMES/SYNONYMS: OIL OF VITRIOL; BOVY; DIPPING ACID; VIRID BOWN OIL;
SULPHURIC SULFATEN;  HYDROGEN SULPHATE; A-300; A-300-51; A-300-51; A-298;
SOL-472; SOL-472-1A

CHEMICAL FAMILY:
INORGANIC ACID

CHEMICAL FORMULA: H2SO4

MOL. WT. 98.07

CERCLA RATINGS: SCALE 0-3: HEALTH=3 FIRE=O REACTIVITY=2 PERSISTENCE=0 COMPONENTS: SULFURIC ACID

PERCENT: 98

COMPONENT WATER
OTHER CONTAMINANTS: NONE

EXPOSURE LIMITS:
1 MG/M3 ASHRAE TWA
1 MG/M3 OSHA TWA
PHYSICAL DATA:

DESCRIPTION: COLORLESS TO DARK BROWN OILY LIQUID
BOILING POINT: 336 F (280 C) MELTING POINT: 37 F (3 C)
SPECIFIC GRAVITY: 1.857 @ 20°C PRESSURE: 0.001 20 C

926-3545-205