Betz Laboratories, MSD 000008055
4636 Somerton Road, Trevose
Betz Material Safety Data Sheet
24 Hour Emergency Telephone (Health or Accident) 814-379-3100

REAGENT : AMMONIUM THIOCYANATE REAGENT CODE 244... EFFECTIVE DATE 02-05-87 LATEST VERSION

REAGENT APPLICATION : FIELD TEST REAGENT
-----SECTION 1 -----HAZARDOUS INGREDIENTS-------
INFORMATION ON PHYSICAL HAZARDS, HEALTH HAZARDS, PEL'S AND TLV'S FOR SPECIFIC REAGENT INGREDIENTS AS REQUIRED BY THE OSHA HAZARD COMMUNICATIONS STANDARD ARE LISTED. REFER TO SECTION 4 (PAGE 2) FOR OUR ASSESSMENT OF THE POTENTIAL ACUTE AND CHRONIC HAZARDS OF THIS FORMULATION.

AMMONIUM THIOCYANATE***CAS#1762-95-4: EYE AND SKIN IRRITANT; MAY CAUSE NAUSEA, DIZZINESS, VOMITING;MAY AFFECT CENTRAL NERVOUS SYSTEM; PEL: NONE; TLV:NONE.

-----SECTION 2 -----TYPICAL PHYSICAL DATA-------
PH: AS IS (APPROX.) 7.0 ODOR: NONE
FL. PT.(DEG.F) : >200 SETA(CC) SP. GR.(70°F) OR DENSITY: 1.0
VAPOR PRESSURE:.mmHg: ND VAPOR DENSITY(AIR): ND
VISC cps(70°F): ND SOLUBILITY(WATER): 100
EVAP. RATE: <1 ETH=1 APPEARANCE: COLORLESS
PHYSICAL STATE: LIQUID FREEZE POINT (DEG. F) : ND

-----SECTION 3 -----REACTIVITY DATA-------
STABLE
THERMAL DECOMPOSITION (DESTRUCTIVE FIRES) YIELDS ELEMENTAL OXIDES.

2057460605