MSDS # 06565

PAGE 01 OF 15

SKN-AMYL ALCOHOL**
SKN-AMYL ALCOHOL**
SKN-AMYL ALCOHOL**
SKN-AMYL ALCOHOL**

MATERIAL SAFETY DATA SHEET

1. IDENTIFICATION
CHEMICAL NAME: AMYL ALCOHOL
GENERIC DIVISION: LIQUID CHEMICALS
SUPPLIER:
EASTMAN CHEMICAL CO
100 EASTLAND DRIVE
KINGSPORT, TN 37660
(201) 985-7100

EMERGENCY CONTACTS
GASTON L. PILLION
(201) 985-7100

DATE: 01/06/87
PO#: N/A
ACC#: 55680-13
CAT NO: A5941
CAS NUMBER: 71-41-0

THE INFORMATION CONTAINED HEREIN IS BELIEVED TO BE ACCURATE AND REPRESENTS THE BEST KNOWLEDGE AVAILABLE AT THIS TIME. HOWEVER, THERE IS NO GUARANTEE THAT IT IS ABSOLUTELY COMPLETE OR APPLICABLE IN ALL SITUATIONS. EASTMAN CHEMICAL CO. ASSUMES NO RESPONSIBILITY FOR ANY DAMAGE OR LIABILITY RESULTING FROM ITS USE. USERS MUST INVESTIGATE AND DETERMINE THE SUITABILITY OF THE INFORMATION FOR THEIR PARTICULAR APPLICATION AND CONTAMINANTS.

2. SUBSTANCE IDENTIFICATION

TRADE NAMES/SYNONYMS: AMYL ALCOHOL
IUPAC NAME: 1-PENTANOL; 2-PENTANOL; 3-PENTANOL; 4-PENTANOL; PENTANOLS
CHEMICAL FAMILY: ALIPHATIC

HYDROLYZ. ALIPHATIC

CHEMICAL FORMULA: C5H12O
MOL WT: 88.1

B.P./F.P. RATINGS (SCALE 0-3): HEALTH=1 FIRE=3 REACTIVITY=0 PERSISTENCE=0
OSHA RATINGS (SCALE 0-4): HEALTH=1 FIRE=3 REACTIVITY=0
COMPONENT: N-AMYL ALCOHOL

3. CONTENTS

PERCENT: 100
OTHER CONTAMINANTS: NONE

4. EXPOSURE LIMITS

NONE ESTABLISHED

5. PHYSICAL DATA

DESCRIPTION: COLORLESS LIQUID WITH A MILD, SWEET ODOR
BOILING POINT: 131 C (268 F)
MELTING POINT: -110 F (-79 C)
SPECIFIC GRAVITY: 0.8 VAPOR PRESSURE: 1.0 MMHG @ 15 C

SOLUBILITY IN WATER: SLIGHTLY SOLUBLE

205748031